70
Energy:-1025.075684 a.u. s1:  1 s2:  1 rot_angle:260 escan:0.0044
C      1.381157     0.209710     1.978440
C      1.326816     0.000000     0.469020
H      2.418163     0.209710     2.345014
H      0.840388    -0.585457     2.512273
H      0.927732     1.169842     2.265422
H      1.780241    -0.960131     0.182037
H      1.867585     0.795167    -0.064813
C      0.000000     0.000000     0.000000
H     -0.517109     0.895900     0.365870
H     -0.517214    -0.895911     0.365636
C     -1.789069    -2.533495    -6.780950
C     -3.020072    -3.439961    -7.009876
C     -0.895416    -3.769164    -7.034238
C     -2.093022    -4.423376    -7.760290
H     -1.684868    -1.798719    -7.592558
H     -3.370877    -3.874181    -6.062325
H     -3.880617    -3.022124    -7.549252
H     -0.671829    -4.292781    -6.093321
H      0.039096    -3.629566    -7.593929
H     -2.070620    -4.199564    -8.836811
H     -2.258250    -5.500578    -7.624683
C     -5.808394    -2.791215    -4.093844
C     -4.225566     1.603977    -1.960114
C     -3.615759    -1.380951    -2.445795
C     -5.394722    -1.330566    -4.248626
C     -4.620540     0.816746    -3.206247
C     -4.868523    -0.676683    -2.966023
H     -4.948964    -3.438950    -3.868500
H     -6.538660    -2.907391    -3.277401
H     -6.272803    -3.170449    -5.015135
H     -4.965809     1.463275    -1.156620
H     -3.245992     1.291060    -1.570917
H     -4.164973     2.680277    -2.175014
H     -3.802419    -2.445154    -2.244138
H     -3.255733    -0.930551    -1.510087
H     -4.620718    -1.243722    -5.032409
H     -6.259141    -0.746759    -4.606849
H     -5.536436     1.256391    -3.635462
H     -3.837973     0.924960    -3.978785
H     -5.659004    -0.765525    -2.195921
C      1.748754    -1.744309    -5.678933
C     -0.217522     2.607916    -7.415414
C      0.504590    -1.041256    -6.211445
C     -0.482427     1.143304    -7.082824
C      0.753747     0.425832    -6.548655
H      2.563738    -1.712717    -6.418436
H      1.549479    -2.798841    -5.441581
H      2.113751    -1.255017    -4.762725
H      0.120070     3.157706    -6.523329
H      0.570029     2.700311    -8.179142
H     -1.118768     3.107199    -7.798233
H      0.139320    -1.561998    -7.112904
H     -1.292339     1.071022    -6.337157
H     -0.845422     0.616707    -7.981786
H      1.566814     0.496069    -7.293532
H      1.119284     0.950481    -5.647558
C     -0.000000     0.000000    -1.407273
H      0.440350    -0.936119    -1.772882
H      0.590411     0.849396    -1.773057
C     -1.322144     0.111256    -1.876293
H     -1.576025     1.170759    -2.006275
H     -2.007474    -0.342679    -1.149572
C     -1.438968    -0.551396    -3.105378
C     -2.583544    -1.296110    -3.389706
C     -0.410870    -0.466264    -4.044175
C     -2.700340    -1.955948    -4.613088
C     -0.527652    -1.126110    -5.267566
C     -1.672220    -1.870812    -5.551880
H      0.484640     0.116300    -3.821907
H     -3.595860    -2.538500    -4.835342
70
Energy:-1025.075684 a.u. s1:  1 s2:  2 rot_angle:260 escan:0.0044
C      1.381157     0.209710     1.978440
C      1.326816     0.000000     0.469020
H      2.418163     0.209710     2.345014
H      0.840388    -0.585457     2.512273
H      0.927732     1.169842     2.265422
H      1.780241    -0.960131     0.182037
H      1.867585     0.795167    -0.064813
C      0.000000     0.000000     0.000000
H     -0.517109     0.895900     0.365870
H     -0.517214    -0.895911     0.365636
C     -1.789069    -2.533498    -6.780949
C     -1.859965    -1.681082    -8.068512
C     -3.162373    -3.132106    -7.162201
C     -2.894012    -2.689816    -8.618831
H     -0.995095    -3.290993    -6.853539
H     -2.327882    -0.705885    -7.869749
H     -0.934816    -1.521608    -8.638352
H     -3.982702    -2.549153    -6.718673
H     -3.337756    -4.198353    -6.966213
H     -2.398928    -3.489930    -9.188215
H     -3.735782    -2.302703    -9.208425
C     -5.808393    -2.791216    -4.093843
C     -4.225565     1.603978    -1.960115
C     -3.615759    -1.380951    -2.445795
C     -5.394722    -1.330567    -4.248625
C     -4.620539     0.816745    -3.206248
C     -4.868522    -0.676683    -2.966023
H     -4.948964    -3.438950    -3.868499
H     -6.538661    -2.907391    -3.277400
H     -6.272804    -3.170450    -5.015133
H     -4.965807     1.463275    -1.156621
H     -3.245991     1.291060    -1.570918
H     -4.164972     2.680277    -2.175016
H     -3.802419    -2.445155    -2.244137
H     -3.255733    -0.930551    -1.510087
H     -4.620718    -1.243723    -5.032408
H     -6.259140    -0.746759    -4.606849
H     -5.536434     1.256391    -3.635463
H     -3.837972     0.924960    -3.978786
H     -5.659004    -0.765525    -2.195921
C      1.748755    -1.744312    -5.678932
C     -0.217521     2.607912    -7.415415
C      0.504590    -1.041260    -6.211443
C     -0.482427     1.143301    -7.082824
C      0.753749     0.425828    -6.548655
H      2.563738    -1.712722    -6.418434
H      1.549479    -2.798844    -5.441580
H      2.113752    -1.255020    -4.762724
H      0.120071     3.157702    -6.523330
H      0.570030     2.700305    -8.179143
H     -1.118766     3.107195    -7.798234
H      0.139320    -1.562002    -7.112903
H     -1.292338     1.071019    -6.337157
H     -0.845422     0.616703    -7.981786
H      1.566815     0.496064    -7.293532
H      1.119285     0.950478    -5.647558
C      0.000000    -0.000000    -1.407273
H      0.440350    -0.936120    -1.772882
H      0.590411     0.849396    -1.773057
C     -1.322144     0.111255    -1.876292
H     -1.576025     1.170759    -2.006276
H     -2.007474    -0.342679    -1.149572
C     -1.438969    -0.551397    -3.105378
C     -2.583545    -1.296111    -3.389706
C     -0.410869    -0.466266    -4.044175
C     -2.700340    -1.955950    -4.613087
C     -0.527652    -1.126113    -5.267565
C     -1.672220    -1.870815    -5.551879
H      0.484640     0.116298    -3.821906
H     -3.595859    -2.538502    -4.835341
70
Energy:-1025.075562 a.u. s1:  3 s2:  1 rot_angle:240 escan:0.0045
C      2.023027    -1.321630     0.162648
C      1.326816     0.000000     0.469020
H      3.060033    -1.321630     0.529222
H      2.053486    -1.516011    -0.919474
H      1.503293    -2.166893     0.637214
H      1.846550     0.845263    -0.005544
H      1.296356     0.194380     1.551142
C      0.000000     0.000000     0.000000
H     -0.517109     0.895900     0.365871
H     -0.517214    -0.895911     0.365635
C     -2.547681    -1.768809    -6.780950
C     -4.014476    -2.199581    -7.009876
C     -2.130545    -3.235605    -7.034238
C     -3.479681    -3.440758    -7.760290
H     -2.198455    -1.113984    -7.592558
H     -4.492636    -2.487632    -6.062325
H     -4.680214    -1.512618    -7.549252
H     -2.099530    -3.804116    -6.093321
H     -1.204647    -3.424048    -7.593929
H     -3.382082    -3.238106    -8.836811
H     -4.003369    -4.396486    -7.624683
C     -6.412756    -0.636297    -4.093844
C     -3.422141     2.952474    -1.960114
C     -3.870015    -0.061007    -2.445795
C     -5.524461     0.594780    -4.248626
C     -4.062544     2.347807    -3.206247
C     -4.806354     1.029258    -2.966023
H     -5.826694    -1.538911    -3.868500
H     -7.138716    -0.495700    -3.277401
H     -6.978864    -0.833822    -5.015135
H     -4.165864     3.073435    -1.156620
H     -2.608666     2.323393    -1.570917
H     -2.997086     3.943141    -2.175014
H     -4.409397    -0.997190    -2.244138
H     -3.377656     0.239094    -1.510087
H     -4.767432     0.411662    -5.032409
H     -6.137075     1.439028    -4.606849
H     -4.772836     3.074194    -3.635462
H     -3.290159     2.181842    -3.978785
H     -5.579549     1.216134    -2.195921
C      1.046703    -2.237223    -5.678933
C      0.687556     2.525036    -7.415414
C      0.118029    -1.151041    -6.211445
C     -0.062300     1.239355    -7.082824
C      0.853934     0.142354    -6.548655
H      1.823342    -2.486278    -6.418436
H      0.498774    -3.160003    -5.441581
H      1.557035    -1.902276    -4.762725
H      1.192828     2.926206    -6.523329
H      1.459213     2.342501    -8.179142
H      0.011426     3.302454    -7.798233
H     -0.403317    -1.515448    -7.112904
H     -0.848090     1.448437    -6.337157
H     -0.583511     0.868667    -7.981786
H      1.641989    -0.069730    -7.293532
H      1.376866     0.510343    -5.647558
C     -0.000000     0.000000    -1.407273
H      0.093622    -1.030273    -1.772882
H      0.845315     0.596239    -1.773057
C     -1.204357     0.556747    -1.876293
H     -1.080556     1.639186    -2.006275
H     -2.003611     0.364584    -1.149572
C     -1.540776    -0.025987    -3.105378
C     -2.871033    -0.334321    -3.389706
C     -0.545563    -0.297619    -4.044175
C     -3.206463    -0.914419    -4.613088
C     -0.880983    -0.877730    -5.267566
C     -2.211229    -1.186056    -5.551880
H      0.495189    -0.056470    -3.821907
H     -4.247221    -1.155554    -4.835342
70
Energy:-1025.075562 a.u. s1:  3 s2:  2 rot_angle:240 escan:0.0045
C      2.023027    -1.321630     0.162648
C      1.326816     0.000000     0.469020
H      3.060033    -1.321630     0.529222
H      2.053486    -1.516011    -0.919474
H      1.503293    -2.166893     0.637214
H      1.846550     0.845263    -0.005544
H      1.296356     0.194380     1.551142
C      0.000000     0.000000     0.000000
H     -0.517109     0.895900     0.365871
H     -0.517214    -0.895911     0.365635
C     -2.547683    -1.768812    -6.780949
C     -2.322760    -0.943555    -8.068512
C     -4.042902    -1.861622    -7.162201
C     -3.639453    -1.537790    -8.618831
H     -2.060669    -2.752180    -6.853539
H     -2.428920     0.132868    -7.869749
H     -1.398860    -1.110118    -8.638352
H     -4.614377    -1.033256    -6.718673
H     -4.572385    -2.803582    -6.966213
H     -3.447881    -2.458980    -9.188215
H     -4.298058    -0.886121    -9.208425
C     -6.412757    -0.636298    -4.093843
C     -3.422140     2.952475    -1.960115
C     -3.870015    -0.061007    -2.445795
C     -5.524461     0.594780    -4.248625
C     -4.062542     2.347806    -3.206248
C     -4.806354     1.029258    -2.966023
H     -5.826694    -1.538911    -3.868499
H     -7.138718    -0.495700    -3.277400
H     -6.978865    -0.833823    -5.015133
H     -4.165862     3.073435    -1.156621
H     -2.608665     2.323393    -1.570918
H     -2.997085     3.943141    -2.175016
H     -4.409397    -0.997190    -2.244137
H     -3.377656     0.239094    -1.510087
H     -4.767433     0.411661    -5.032408
H     -6.137074     1.439028    -4.606849
H     -4.772835     3.074193    -3.635463
H     -3.290159     2.181841    -3.978786
H     -5.579549     1.216135    -2.195921
C      1.046702    -2.237226    -5.678932
C      0.687555     2.525032    -7.415415
C      0.118027    -1.151044    -6.211443
C     -0.062301     1.239351    -7.082824
C      0.853934     0.142350    -6.548655
H      1.823340    -2.486282    -6.418434
H      0.498773    -3.160006    -5.441580
H      1.557035    -1.902279    -4.762724
H      1.192828     2.926203    -6.523330
H      1.459212     2.342495    -8.179143
H      0.011427     3.302449    -7.798234
H     -0.403318    -1.515452    -7.112903
H     -0.848091     1.448434    -6.337157
H     -0.583512     0.868662    -7.981786
H      1.641989    -0.069734    -7.293532
H      1.376866     0.510339    -5.647558
C     -0.000000    -0.000000    -1.407273
H      0.093622    -1.030274    -1.772882
H      0.845315     0.596238    -1.773057
C     -1.204358     0.556746    -1.876292
H     -1.080556     1.639186    -2.006276
H     -2.003612     0.364583    -1.149572
C     -1.540777    -0.025987    -3.105378
C     -2.871034    -0.334322    -3.389706
C     -0.545563    -0.297621    -4.044175
C     -3.206463    -0.914421    -4.613087
C     -0.880984    -0.877732    -5.267565
C     -2.211229    -1.186058    -5.551879
H      0.495189    -0.056473    -3.821906
H     -4.247221    -1.155556    -4.835341
70
Energy:-1025.075439 a.u. s1:  1 s2:  1 rot_angle:  0 escan:0.0047
C      1.381157     0.209710     1.978440
C      1.326816     0.000000     0.469020
H      2.418163     0.209710     2.345014
H      0.840388    -0.585457     2.512273
H      0.927732     1.169842     2.265422
H      1.780241    -0.960131     0.182037
H      1.867585     0.795167    -0.064813
C      0.000000     0.000000     0.000000
H     -0.517109     0.895900     0.365870
H     -0.517214    -0.895911     0.365636
C      2.805674    -1.321953    -6.780950
C      3.912131    -2.376848    -7.009876
C      3.867389    -0.227304    -7.034238
C      4.719624    -1.293113    -7.760290
H      2.063966    -1.346926    -7.592558
H      4.400670    -2.646921    -6.062325
H      3.650073    -3.296875    -7.549252
H      4.344226     0.083811    -6.093321
H      3.567636     0.668769    -7.593929
H      4.495323    -1.309916    -8.836811
H      5.809153    -1.268777    -7.624683
C      3.757427    -5.235462    -4.093844
C     -0.845848    -4.439898    -1.960114
C      1.987841    -3.321028    -2.445795
C      2.247135    -5.081714    -4.248626
C     -0.001989    -4.692170    -3.206247
C      1.511813    -4.677054    -2.966023
H      4.246083    -4.276610    -3.868500
H      3.998647    -5.934460    -3.277401
H      4.211543    -5.626962    -5.015135
H     -0.578741    -5.144462    -1.156620
H     -0.707785    -3.420868    -1.570917
H     -1.916318    -4.567123    -2.175014
H      3.068290    -3.320055    -2.244138
H      1.481766    -3.044683    -1.510087
H      2.027206    -4.334548    -5.032409
H      1.822302    -6.034378    -4.606849
H     -0.275912    -5.670495    -3.635462
H     -0.244452    -3.940283    -3.978785
H      1.736571    -5.440099    -2.195921
C      1.414141     2.025083    -5.678933
C     -2.530524    -0.667077    -7.415414
C      0.937816     0.677736    -6.211445
C     -1.042162    -0.673631    -7.082824
C     -0.550249     0.668351    -6.548655
H      1.241509     2.822199    -6.418436
H      2.487256     2.011952    -5.441581
H      0.868901     2.299570    -4.762725
H     -3.130583    -0.430084    -6.523329
H     -2.758271     0.092465    -8.179142
H     -2.865722    -1.641331    -7.798233
H      1.514075     0.408441    -7.112904
H     -0.830339    -1.458686    -6.337157
H     -0.460532    -0.939669    -7.981786
H     -0.760607     1.456869    -7.293532
H     -1.130403     0.937230    -5.647558
C      0.000000    -0.000000    -1.407273
H      0.845432     0.596215    -1.772882
H     -0.939016     0.433945    -1.773057
C      0.120022    -1.321377    -1.876293
H     -0.879299    -1.755382    -2.006275
H      0.686067    -1.917470    -1.149572
C      0.792893    -1.321358    -3.105378
C      1.725047    -2.319227    -3.389706
C      0.530527    -0.323662    -4.044175
C      2.395142    -2.319669    -4.613088
C      1.200628    -0.324089    -5.267566
C      2.132769    -1.321953    -5.551880
H     -0.198690     0.457082    -3.821907
H      3.124349    -3.100425    -4.835342
70
Energy:-1025.075439 a.u. s1:  1 s2:  1 rot_angle:160 escan:0.0046
C      1.381157     0.209710     1.978440
C      1.326816     0.000000     0.469020
H      2.418163     0.209710     2.345014
H      0.840388    -0.585457     2.512273
H      0.927732     1.169842     2.265422
H      1.780241    -0.960131     0.182037
H      1.867585     0.795167    -0.064813
C      0.000000     0.000000     0.000000
H     -0.517109     0.895900     0.365870
H     -0.517214    -0.895911     0.365636
C     -2.184337     2.201826    -6.780950
C     -2.863271     3.571533    -7.009876
C     -3.556415     1.536321    -7.034238
C     -3.992726     2.829335    -7.760290
H     -1.478818     1.971615    -7.592558
H     -3.229977     3.992410    -6.062325
H     -2.302349     4.346447    -7.549252
H     -4.110903     1.407056    -6.093321
H     -3.581214     0.591765    -7.593929
H     -3.776204     2.768409    -8.836811
H     -5.024871     3.179107    -7.624683
C     -1.740194     6.204841    -4.093844
C      2.313371     3.882843    -1.960114
C     -0.732102     3.800627    -2.445795
C     -0.373568     5.543815    -4.248626
C      1.606685     4.408517    -3.206247
C      0.179007     4.912064    -2.966023
H     -2.527327     5.470945    -3.868500
H     -1.727795     6.944185    -3.277401
H     -2.033022     6.728047    -5.015135
H      2.303348     4.636271    -1.156620
H      1.835106     2.972488    -1.570917
H      3.362797     3.636273    -2.175014
H     -1.747724     4.169248    -2.244138
H     -0.351062     3.367860    -1.510087
H     -0.422448     4.766489    -5.032409
H      0.351474     6.293724    -4.606849
H      2.198695     5.234155    -3.635462
H      1.577365     3.619048    -3.978785
H      0.228780     5.705963    -2.195921
C     -2.021476    -1.419291    -5.678933
C      2.606068    -0.238642    -7.415414
C     -1.113058    -0.316112    -6.211445
C      1.209708     0.276566    -7.082824
C      0.288476    -0.816241    -6.548655
H     -2.131885    -2.227379    -6.418436
H     -3.025384    -1.039926    -5.441581
H     -1.602999    -1.863707    -4.762725
H      3.088883    -0.666575    -6.523329
H      2.560302    -1.030273    -8.179142
H      3.254266     0.562213    -7.798233
H     -1.562461     0.134035    -7.112904
H      1.279163     1.086724    -6.337157
H      0.754144     0.725489    -7.981786
H      0.216458    -1.629152    -7.293532
H      0.741680    -1.267329    -5.647558
C      0.000000     0.000000    -1.407273
H     -0.998364    -0.271104    -1.772882
H      0.733968    -0.728937    -1.773057
C      0.339154     1.282738    -1.876293
H      1.426647     1.348782    -2.006275
H      0.011121     2.036481    -1.149572
C     -0.293145     1.512856    -3.105378
C     -0.827792     2.769362    -3.389706
C     -0.387833     0.485594    -4.044175
C     -1.457324     2.998962    -4.613088
C     -1.017376     0.715183    -5.267566
C     -1.552013     1.971679    -5.551880
H      0.030376    -0.497472    -3.821907
H     -1.875521     3.982036    -4.835342
70
Energy:-1025.075439 a.u. s1:  1 s2:  2 rot_angle:  0 escan:0.0047
C      1.381157     0.209710     1.978440
C      1.326816     0.000000     0.469020
H      2.418163     0.209710     2.345014
H      0.840388    -0.585457     2.512273
H      0.927732     1.169842     2.265422
H      1.780241    -0.960131     0.182037
H      1.867585     0.795167    -0.064813
C      0.000000     0.000000     0.000000
H     -0.517109     0.895900     0.365870
H     -0.517214    -0.895911     0.365636
C      2.805677    -1.321952    -6.780949
C      1.978522    -1.539791    -8.068512
C      3.633662    -2.570445    -7.162201
C      3.151492    -2.382964    -8.618831
H      3.413792    -0.408503    -6.853539
H      1.099393    -2.169940    -7.869749
H      1.660821    -0.656390    -8.638352
H      3.202014    -3.479540    -6.718673
H      4.714166    -2.558011    -6.966213
H      3.853479    -1.756463    -9.188215
H      2.916431    -3.279167    -9.208425
C      3.757428    -5.235462    -4.093843
C     -0.845848    -4.439898    -1.960115
C      1.987841    -3.321028    -2.445795
C      2.247136    -5.081714    -4.248625
C     -0.001989    -4.692168    -3.206248
C      1.511813    -4.677053    -2.966023
H      4.246083    -4.276611    -3.868499
H      3.998647    -5.934462    -3.277400
H      4.211544    -5.626963    -5.015133
H     -0.578742    -5.144460    -1.156621
H     -0.707786    -3.420867    -1.570918
H     -1.916318    -4.567122    -2.175016
H      3.068290    -3.320055    -2.244137
H      1.481766    -3.044683    -1.510087
H      2.027207    -4.334549    -5.032408
H      1.822302    -6.034377    -4.606849
H     -0.275913    -5.670493    -3.635463
H     -0.244451    -3.940282    -3.978786
H      1.736570    -5.440099    -2.195921
C      1.414144     2.025084    -5.678932
C     -2.530519    -0.667075    -7.415415
C      0.937820     0.677737    -6.211443
C     -1.042159    -0.673630    -7.082824
C     -0.550246     0.668353    -6.548655
H      1.241513     2.822200    -6.418434
H      2.487259     2.011953    -5.441580
H      0.868904     2.299571    -4.762724
H     -3.130580    -0.430082    -6.523330
H     -2.758266     0.092467    -8.179143
H     -2.865719    -1.641328    -7.798234
H      1.514079     0.408442    -7.112903
H     -0.830336    -1.458685    -6.337157
H     -0.460528    -0.939667    -7.981786
H     -0.760602     1.456871    -7.293532
H     -1.130400     0.937232    -5.647558
C      0.000000     0.000000    -1.407273
H      0.845432     0.596215    -1.772882
H     -0.939015     0.433945    -1.773057
C      0.120023    -1.321377    -1.876292
H     -0.879299    -1.755382    -2.006276
H      0.686067    -1.917470    -1.149572
C      0.792894    -1.321358    -3.105378
C      1.725048    -2.319228    -3.389706
C      0.530529    -0.323661    -4.044175
C      2.395143    -2.319668    -4.613087
C      1.200630    -0.324089    -5.267565
C      2.132771    -1.321952    -5.551879
H     -0.198688     0.457083    -3.821906
H      3.124351    -3.100424    -4.835341
70
Energy:-1025.075439 a.u. s1:  1 s2:  2 rot_angle:160 escan:0.0046
C      1.381157     0.209710     1.978440
C      1.326816     0.000000     0.469020
H      2.418163     0.209710     2.345014
H      0.840388    -0.585457     2.512273
H      0.927732     1.169842     2.265422
H      1.780241    -0.960131     0.182037
H      1.867585     0.795167    -0.064813
C      0.000000     0.000000     0.000000
H     -0.517109     0.895900     0.365870
H     -0.517214    -0.895911     0.365636
C     -2.184340     2.201827    -6.780949
C     -1.332564     2.123625    -8.068512
C     -2.535383     3.658213    -7.162201
C     -2.146412     3.317127    -8.618831
H     -3.068199     1.551452    -6.853539
H     -0.290928     2.415092    -7.869749
H     -1.336163     1.184839    -8.638352
H     -1.818837     4.364851    -6.718673
H     -3.554976     4.016084    -6.966213
H     -3.020341     2.968503    -9.188215
H     -1.619009     4.078887    -9.208425
C     -1.740195     6.204841    -4.093843
C      2.313371     3.882842    -1.960115
C     -0.732102     3.800627    -2.445795
C     -0.373569     5.543814    -4.248625
C      1.606685     4.408515    -3.206248
C      0.179007     4.912063    -2.966023
H     -2.527327     5.470945    -3.868499
H     -1.727795     6.944187    -3.277400
H     -2.033023     6.728048    -5.015133
H      2.303348     4.636270    -1.156621
H      1.835106     2.972486    -1.570918
H      3.362797     3.636272    -2.175016
H     -1.747725     4.169248    -2.244137
H     -0.351062     3.367860    -1.510087
H     -0.422449     4.766489    -5.032408
H      0.351473     6.293724    -4.606849
H      2.198695     5.234153    -3.635463
H      1.577364     3.619047    -3.978786
H      0.228781     5.705963    -2.195921
C     -2.021480    -1.419291    -5.678932
C      2.606064    -0.238642    -7.415415
C     -1.113062    -0.316111    -6.211443
C      1.209704     0.276566    -7.082824
C      0.288472    -0.816242    -6.548655
H     -2.131890    -2.227378    -6.418434
H     -3.025387    -1.039925    -5.441580
H     -1.603002    -1.863707    -4.762724
H      3.088880    -0.666576    -6.523330
H      2.560296    -1.030273    -8.179143
H      3.254262     0.562211    -7.798234
H     -1.562464     0.134035    -7.112903
H      1.279160     1.086725    -6.337157
H      0.754140     0.725488    -7.981786
H      0.216454    -1.629152    -7.293532
H      0.741676    -1.267329    -5.647558
C     -0.000000     0.000000    -1.407273
H     -0.998364    -0.271105    -1.772882
H      0.733968    -0.728937    -1.773057
C      0.339153     1.282739    -1.876292
H      1.426646     1.348781    -2.006276
H      0.011121     2.036482    -1.149572
C     -0.293146     1.512856    -3.105378
C     -0.827793     2.769362    -3.389706
C     -0.387835     0.485593    -4.044175
C     -1.457326     2.998962    -4.613087
C     -1.017379     0.715183    -5.267565
C     -1.552015     1.971679    -5.551879
H      0.030374    -0.497472    -3.821906
H     -1.875523     3.982036    -4.835341
70
Energy:-1025.075317 a.u. s1:  2 s2:  1 rot_angle:280 escan:0.0047
C      2.144085     1.111920    -0.179814
C      1.326816     0.000000     0.469020
H      3.181091     1.111920     0.186760
H      1.715524     2.101468     0.036591
H      2.178599     0.997051    -1.273166
H      1.292302     0.114868     1.562372
H      1.755377    -0.989547     0.252615
C      0.000000     0.000000     0.000000
H     -0.517109     0.895900     0.365870
H     -0.517214    -0.895911     0.365636
C     -0.814668    -2.992605    -6.780950
C     -1.661402    -4.265432    -7.009876
C      0.447716    -3.848105    -7.034238
C     -0.453911    -4.872469    -7.760290
H     -0.968058    -2.266502    -7.592558
H     -1.842538    -4.793448    -6.062325
H     -2.612958    -4.167118    -7.549252
H      0.836906    -4.263674    -6.093321
H      1.278124    -3.397305    -7.593929
H     -0.509409    -4.654493    -8.836811
H     -0.240750    -5.941220    -7.624683
C     -4.503451    -4.609474    -4.093844
C     -4.519326     0.062015    -1.960114
C     -2.925388    -2.534333    -2.445795
C     -4.614299    -3.095429    -4.248626
C     -4.621230    -0.812830    -3.206247
C     -4.343474    -2.301009    -2.966023
H     -3.474313    -4.924202    -3.868500
H     -5.149942    -4.968409    -3.277401
H     -4.810147    -5.124674    -5.015135
H     -5.166803    -0.323380    -1.156620
H     -3.491803     0.103003    -1.570917
H     -4.830504     1.094130    -2.175014
H     -2.736811    -3.598198    -2.244138
H     -2.741121    -1.987960    -1.510087
H     -3.916675    -2.749096    -5.032409
H     -5.626261    -2.842479    -4.606849
H     -5.632258    -0.712953    -3.635462
H     -3.922869    -0.443487    -3.978785
H     -5.055898    -2.654854    -2.195921
C      2.239880    -1.041004    -5.678933
C     -1.096364     2.376242    -7.415414
C      0.830290    -0.805880    -6.211445
C     -0.844367     0.909354    -7.082824
C      0.562647     0.657948    -6.548655
H      2.994910    -0.732577    -6.418436
H      2.413295    -2.100096    -5.441581
H      2.415518    -0.456384    -4.762725
H     -0.967171     3.008339    -6.523329
H     -0.387909     2.732423    -8.179142
H     -2.114024     2.537170    -7.798233
H      0.665153    -1.420148    -7.112904
H     -1.580713     0.564425    -6.337157
H     -1.005364     0.290363    -7.981786
H      1.302657     1.002034    -7.293532
H      0.726698     1.275978    -5.647558
C     -0.000000    -0.000000    -1.407273
H      0.733965    -0.729056    -1.772882
H      0.264294     1.000104    -1.773057
C     -1.280461    -0.347654    -1.876293
H     -1.881403     0.561121    -2.006275
H     -1.769205    -1.008610    -1.149572
C     -1.163599    -1.010299    -3.105378
C     -1.984441    -2.101570    -3.389706
C     -0.226620    -0.578670    -4.044175
C     -1.868515    -2.761561    -4.613088
C     -0.110678    -1.238665    -5.267566
C     -0.931517    -2.329922    -5.551880
H      0.415635     0.275043    -3.821907
H     -2.510783    -3.615268    -4.835342
70
Energy:-1025.075317 a.u. s1:  2 s2:  2 rot_angle:280 escan:0.0047
C      2.144085     1.111920    -0.179814
C      1.326816     0.000000     0.469020
H      3.181091     1.111920     0.186760
H      1.715524     2.101468     0.036591
H      2.178599     0.997051    -1.273166
H      1.292302     0.114868     1.562372
H      1.755377    -0.989547     0.252615
C      0.000000     0.000000     0.000000
H     -0.517109     0.895900     0.365870
H     -0.517214    -0.895911     0.365636
C     -0.814667    -2.992608    -6.780949
C     -1.172831    -2.215847    -8.068512
C     -1.900413    -4.024813    -7.162201
C     -1.799510    -3.517412    -8.618831
H      0.190504    -3.432865    -6.853539
H     -1.946066    -1.459498    -7.869749
H     -0.358018    -1.749570    -8.638352
H     -2.870652    -3.757586    -6.718673
H     -1.700541    -5.086742    -6.966213
H     -1.060627    -4.099943    -9.188215
H     -2.722915    -3.441547    -9.208425
C     -4.503451    -4.609474    -4.093843
C     -4.519326     0.062016    -1.960115
C     -2.925388    -2.534333    -2.445795
C     -4.614298    -3.095429    -4.248625
C     -4.621229    -0.812830    -3.206248
C     -4.343474    -2.301008    -2.966023
H     -3.474313    -4.924202    -3.868499
H     -5.149943    -4.968410    -3.277400
H     -4.810147    -5.124676    -5.015133
H     -5.166801    -0.323379    -1.156621
H     -3.491802     0.103004    -1.570918
H     -4.830503     1.094130    -2.175016
H     -2.736811    -3.598199    -2.244137
H     -2.741120    -1.987960    -1.510087
H     -3.916676    -2.749097    -5.032408
H     -5.626260    -2.842479    -4.606849
H     -5.632257    -0.712953    -3.635463
H     -3.922868    -0.443487    -3.978786
H     -5.055898    -2.654853    -2.195921
C      2.239882    -1.041007    -5.678932
C     -1.096362     2.376238    -7.415415
C      0.830291    -0.805884    -6.211443
C     -0.844365     0.909351    -7.082824
C      0.562650     0.657945    -6.548655
H      2.994911    -0.732581    -6.418434
H      2.413296    -2.100099    -5.441580
H      2.415519    -0.456386    -4.762724
H     -0.967169     3.008336    -6.523330
H     -0.387907     2.732418    -8.179143
H     -2.114020     2.537167    -7.798234
H      0.665155    -1.420151    -7.112903
H     -1.580711     0.564422    -6.337157
H     -1.005361     0.290360    -7.981786
H      1.302660     1.002031    -7.293532
H      0.726701     1.275975    -5.647558
C      0.000000    -0.000000    -1.407273
H      0.733966    -0.729056    -1.772882
H      0.264294     1.000103    -1.773057
C     -1.280460    -0.347655    -1.876292
H     -1.881402     0.561121    -2.006276
H     -1.769205    -1.008610    -1.149572
C     -1.163599    -1.010300    -3.105378
C     -1.984441    -2.101571    -3.389706
C     -0.226618    -0.578672    -4.044175
C     -1.868514    -2.761563    -4.613087
C     -0.110677    -1.238668    -5.267565